Program Version,EnergyPlus, Version 23.2.0-7636e6b3e9, YMD=2024.03.23 23:55
1,5,Environment Title[],Latitude[deg],Longitude[deg],Time Zone[],Elevation[m]
2,8,Day of Simulation[],Month[],Day of Month[],DST Indicator[1=yes 0=no],Hour[],StartMinute[],EndMinute[],DayType
3,5,Cumulative Day of Simulation[],Month[],Day of Month[],DST Indicator[1=yes 0=no],DayType  ! When Daily Report Variables Requested
4,2,Cumulative Days of Simulation[],Month[]  ! When Monthly Report Variables Requested
5,1,Cumulative Days of Simulation[] ! When Run Period Report Variables Requested
6,1,Calendar Year of Simulation[] ! When Annual Report Variables Requested
141,1,PHOTOVOLTAIC ARRAY 24..0,Generator Produced DC Electricity Energy [J] !Hourly
178,1,PHOTOVOLTAIC ARRAY 24..1,Generator Produced DC Electricity Energy [J] !Hourly
179,1,PHOTOVOLTAIC ARRAY 24..2,Generator Produced DC Electricity Energy [J] !Hourly
180,1,PHOTOVOLTAIC ARRAY 24..3,Generator Produced DC Electricity Energy [J] !Hourly
181,1,PHOTOVOLTAIC ARRAY 24..4,Generator Produced DC Electricity Energy [J] !Hourly
182,1,PHOTOVOLTAIC ARRAY 24..5,Generator Produced DC Electricity Energy [J] !Hourly
183,1,PHOTOVOLTAIC ARRAY 24..6,Generator Produced DC Electricity Energy [J] !Hourly
184,1,PHOTOVOLTAIC ARRAY 24..7,Generator Produced DC Electricity Energy [J] !Hourly
185,1,PHOTOVOLTAIC ARRAY 24..9,Generator Produced DC Electricity Energy [J] !Hourly
186,1,PHOTOVOLTAIC ARRAY 24..10,Generator Produced DC Electricity Energy [J] !Hourly
187,1,PHOTOVOLTAIC ARRAY 24..11,Generator Produced DC Electricity Energy [J] !Hourly
188,1,PHOTOVOLTAIC ARRAY 24..12,Generator Produced DC Electricity Energy [J] !Hourly
189,1,PHOTOVOLTAIC ARRAY 24..13,Generator Produced DC Electricity Energy [J] !Hourly
190,1,PHOTOVOLTAIC ARRAY 24..14,Generator Produced DC Electricity Energy [J] !Hourly
191,1,PHOTOVOLTAIC ARRAY 24..15,Generator Produced DC Electricity Energy [J] !Hourly
192,1,PHOTOVOLTAIC ARRAY 24..16,Generator Produced DC Electricity Energy [J] !Hourly
193,1,PHOTOVOLTAIC ARRAY 24..17,Generator Produced DC Electricity Energy [J] !Hourly
194,1,PHOTOVOLTAIC ARRAY 24..18,Generator Produced DC Electricity Energy [J] !Hourly
195,1,PHOTOVOLTAIC ARRAY 24..19,Generator Produced DC Electricity Energy [J] !Hourly
196,1,PHOTOVOLTAIC ARRAY 24..20,Generator Produced DC Electricity Energy [J] !Hourly
197,1,PHOTOVOLTAIC ARRAY 24..21,Generator Produced DC Electricity Energy [J] !Hourly
198,1,PHOTOVOLTAIC ARRAY 24..22,Generator Produced DC Electricity Energy [J] !Hourly
199,1,PHOTOVOLTAIC ARRAY 24..23,Generator Produced DC Electricity Energy [J] !Hourly
200,1,PHOTOVOLTAIC ARRAY 24..24,Generator Produced DC Electricity Energy [J] !Hourly
361,1,Whole Building,Facility Net Purchased Electricity Energy [J] !Hourly
410,1,Whole Building,Facility Total Produced Electricity Energy [J] !Hourly
End of Data Dictionary
1,RUN PERIOD 1,  51.52,  -2.58,   0.00,  59.00
2,1, 1, 1, 0, 1, 0.00,60.00,Sunday
141,0.0
178,0.0
179,0.0
180,0.0
181,0.0
182,0.0
183,0.0
184,0.0
185,0.0
186,0.0
187,0.0
188,0.0
189,0.0
190,0.0
191,0.0
192,0.0
193,0.0
194,0.0
195,0.0
196,0.0
197,0.0
198,0.0
199,0.0
200,0.0
361,0.0
410,0.0
2,1, 1, 1, 0, 2, 0.00,60.00,Sunday
141,0.0
178,0.0
179,0.0
180,0.0
181,0.0
182,0.0
183,0.0
184,0.0
185,0.0
186,0.0
187,0.0
188,0.0
189,0.0
190,0.0
191,0.0
192,0.0
193,0.0
194,0.0
195,0.0
196,0.0
197,0.0
198,0.0
199,0.0
200,0.0
361,0.0
410,0.0
2,1, 1, 1, 0, 3, 0.00,60.00,Sunday
141,0.0
178,0.0
179,0.0
180,0.0
181,0.0
182,0.0
183,0.0
184,0.0
185,0.0
186,0.0
187,0.0
188,0.0
189,0.0
190,0.0
191,0.0
192,0.0
193,0.0
194,0.0
195,0.0
196,0.0
197,0.0
198,0.0
199,0.0
200,0.0
361,0.0
410,0.0
2,1, 1, 1, 0, 4, 0.00,60.00,Sunday
141,0.0
178,0.0
179,0.0
180,0.0
181,0.0
182,0.0
183,0.0
184,0.0
185,0.0
186,0.0
187,0.0
188,0.0
189,0.0
190,0.0
191,0.0
192,0.0
193,0.0
194,0.0
195,0.0
196,0.0
197,0.0
198,0.0
199,0.0
200,0.0
361,0.0
410,0.0
2,1, 1, 1, 0, 5, 0.00,60.00,Sunday
141,0.0
178,0.0
179,0.0
180,0.0
181,0.0
182,0.0
183,0.0
184,0.0
185,0.0
186,0.0
187,0.0
188,0.0
189,0.0
190,0.0
191,0.0
192,0.0
193,0.0
194,0.0
195,0.0
196,0.0
197,0.0
198,0.0
199,0.0
200,0.0
361,0.0
410,0.0
2,1, 1, 1, 0, 6, 0.00,60.00,Sunday
141,0.0
178,0.0
179,0.0
180,0.0
181,0.0
182,0.0
183,0.0
184,0.0
185,0.0
186,0.0
187,0.0
188,0.0
189,0.0
190,0.0
191,0.0
192,0.0
193,0.0
194,0.0
195,0.0
196,0.0
197,0.0
198,0.0
199,0.0
200,0.0
361,0.0
410,0.0
2,1, 1, 1, 0, 7, 0.00,60.00,Sunday
141,0.0
178,0.0
179,0.0
180,0.0
181,0.0
182,0.0
183,0.0
184,0.0
185,0.0
186,0.0
187,0.0
188,0.0
189,0.0
190,0.0
191,0.0
192,0.0
193,0.0
194,0.0
195,0.0
196,0.0
197,0.0
198,0.0
199,0.0
200,0.0
361,0.0
410,0.0
2,1, 1, 1, 0, 8, 0.00,60.00,Sunday
141,0.0
178,0.0
179,0.0
180,0.0
181,0.0
182,0.0
183,0.0
184,0.0
185,0.0
186,0.0
187,0.0
188,0.0
189,0.0
190,0.0
191,0.0
192,0.0
193,0.0
194,0.0
195,0.0
196,0.0
197,0.0
198,0.0
199,0.0
200,0.0
361,0.0
410,0.0
2,1, 1, 1, 0, 9, 0.00,60.00,Sunday
141,8394.92456649699
178,8394.92456649699
179,8394.92456649699
180,8394.92456649699
181,8394.92456649699
182,8394.92456649699
183,8394.92456649699
184,8394.92456649699
185,8394.92456649699
186,8394.92456649699
187,8394.92456649699
188,8394.92456649699
189,8394.92456649699
190,8394.92456649699
191,8394.92456649699
192,8394.92456649699
193,6402.276447105094
194,6402.276447105094
195,6402.276447105094
196,6402.276447105098
197,6402.276447105098
198,6415.135694318139
199,8036.08518180845
200,8394.92456649699
361,-122952.21533106422
410,122952.21533106422
2,1, 1, 1, 0,10, 0.00,60.00,Sunday
141,62612.84625852655
178,62612.84625852655
179,62612.84625852655
180,62612.84625852657
181,62612.84625852657
182,62612.84625852657
183,62612.84625852657
184,62612.84625852655
185,62612.84625852655
186,62612.84625852655
187,62612.84625852655
188,62612.84625852657
189,62612.84625852657
190,62612.84625852657
191,62612.84625852657
192,62612.84625852655
193,51007.86855247595
194,51007.86855247595
195,51007.86855247595
196,51007.868552475964
197,51007.868552475964
198,51007.86854983604
199,52314.978533252935
200,62482.64767932499
361,-1269927.9821641133
410,1269927.9821641133
2,1, 1, 1, 0,11, 0.00,60.00,Sunday
141,108687.12411767418
178,108687.12411767418
179,108687.12411767418
180,108687.12411767419
181,108687.12411767419
182,108687.12411767419
183,108687.12411767419
184,108687.12411767418
185,108687.12411767418
186,108687.12411767418
187,108687.12411767418
188,108687.12411767419
189,108687.12411767419
190,108687.12411767419
191,108687.12411767419
192,108687.12411767418
193,96476.79227901704
194,96476.79227901703
195,96476.79227901704
196,96476.79227901706
197,96476.79227901706
198,96476.79227901706
199,96476.79227814772
200,104221.69755352222
361,-2342931.267058732
410,2342931.267058732
2,1, 1, 1, 0,12, 0.00,60.00,Sunday
141,106370.91980989688
178,106370.91980989688
179,106370.91980989688
180,106370.91980989688
181,106370.91980989688
182,106370.91980989688
183,106370.91980989688
184,106370.91980989688
185,106370.91980989688
186,106370.91980989688
187,106370.91980989688
188,106370.91980989688
189,106370.91980989688
190,106370.91980989688
191,106370.91980989688
192,106370.91980989688
193,102154.7692624148
194,102154.7692624148
195,102154.7692624148
196,102154.7692624148
197,102154.7692624148
198,102154.7692624148
199,102154.7692624148
200,102988.8881633811
361,-2344371.461252658
410,2344371.461252658
2,1, 1, 1, 0,13, 0.00,60.00,Sunday
141,114396.46139125281
178,114396.46139125281
179,114396.46139125281
180,114396.46139125281
181,114396.46139125281
182,114396.46139125281
183,114396.46139125281
184,114396.46139125281
185,114396.46139125281
186,114396.46139125281
187,114396.46139125281
188,114396.46139125281
189,114396.46139125281
190,114396.46139125281
191,114396.46139125281
192,114396.46139125281
193,110133.00703425845
194,109941.71802983762
195,109941.71802983763
196,109941.71802983765
197,109941.71802983765
198,109941.71802983765
199,109941.71802983765
200,109941.70237307217
361,-2530268.7092648977
410,2530268.7092648977
2,1, 1, 1, 0,14, 0.00,60.00,Sunday
141,99073.13986739563
178,99073.13986739563
179,99073.13986739563
180,99073.13986739564
181,99073.13986739564
182,99073.13986739564
183,99073.13986739564
184,99073.13986739563
185,99073.13986739563
186,99073.13986739563
187,99073.13986739563
188,99073.13986739564
189,99073.13986739564
190,99073.13986739564
191,99073.13986739564
192,99073.13986739563
193,96314.7122601579
194,94674.66931639361
195,94674.66931639363
196,94674.66931639363
197,94674.66931639363
198,94674.66931639363
199,94674.66931639363
200,94674.66931639363
361,-2172333.2758129095
410,2172333.2758129095
2,1, 1, 1, 0,15, 0.00,60.00,Sunday
141,49051.22088152353
178,49051.22088152353
179,49051.22088152353
180,49051.22088152352
181,49051.22088152352
182,49051.22088152352
183,49051.22088152352
184,49051.22088152353
185,49051.22088152353
186,49051.22088152353
187,49051.22088152353
188,49051.22088152352
189,49051.22088152352
190,49051.22088152352
191,49051.22088152352
192,49051.22088152353
193,48750.952075458066
194,47380.85495048682
195,47380.85495048682
196,47380.85495048682
197,47380.85495048682
198,47380.85495048682
199,47380.85495048682
200,47380.85495048682
361,-1017668.5901226839
410,1017668.5901226839
2,1, 1, 1, 0,16, 0.00,60.00,Sunday
141,13607.409157401715
178,13607.409157401715
179,13607.409157401715
180,13607.409157401715
181,13607.409157401715
182,13607.409157401715
183,13607.409157401715
184,13607.409157401715
185,13607.409157401715
186,13607.409157401715
187,13607.409157401715
188,13607.409157401715
189,13607.409157401715
190,13607.409157401715
191,13607.409157401715
192,13607.409157401715
193,13607.40915740668
194,13497.233536219594
195,13471.492247205088
196,13471.492247205086
197,13471.492247205086
198,13471.492247205086
199,13471.492247205086
200,13471.492247205086
361,-194192.24019681878
410,194192.24019681878
2,1, 1, 1, 0,17, 0.00,60.00,Sunday
141,0.0
178,0.0
179,0.0
180,0.0
181,0.0
182,0.0
183,0.0
184,0.0
185,0.0
186,0.0
187,0.0
188,0.0
189,0.0
190,0.0
191,0.0
192,0.0
193,0.0
194,0.0
195,0.0
196,0.0
197,0.0
198,0.0
199,0.0
200,0.0
361,0.0
410,0.0
2,1, 1, 1, 0,18, 0.00,60.00,Sunday
141,0.0
178,0.0
179,0.0
180,0.0
181,0.0
182,0.0
183,0.0
184,0.0
185,0.0
186,0.0
187,0.0
188,0.0
189,0.0
190,0.0
191,0.0
192,0.0
193,0.0
194,0.0
195,0.0
196,0.0
197,0.0
198,0.0
199,0.0
200,0.0
361,0.0
410,0.0
2,1, 1, 1, 0,19, 0.00,60.00,Sunday
141,0.0
178,0.0
179,0.0
180,0.0
181,0.0
182,0.0
183,0.0
184,0.0
185,0.0
186,0.0
187,0.0
188,0.0
189,0.0
190,0.0
191,0.0
192,0.0
193,0.0
194,0.0
195,0.0
196,0.0
197,0.0
198,0.0
199,0.0
200,0.0
361,0.0
410,0.0
2,1, 1, 1, 0,20, 0.00,60.00,Sunday
141,0.0
178,0.0
179,0.0
180,0.0
181,0.0
182,0.0
183,0.0
184,0.0
185,0.0
186,0.0
187,0.0
188,0.0
189,0.0
190,0.0
191,0.0
192,0.0
193,0.0
194,0.0
195,0.0
196,0.0
197,0.0
198,0.0
199,0.0
200,0.0
361,0.0
410,0.0
2,1, 1, 1, 0,21, 0.00,60.00,Sunday
141,0.0
178,0.0
179,0.0
180,0.0
181,0.0
182,0.0
183,0.0
184,0.0
185,0.0
186,0.0
187,0.0
188,0.0
189,0.0
190,0.0
191,0.0
192,0.0
193,0.0
194,0.0
195,0.0
196,0.0
197,0.0
198,0.0
199,0.0
200,0.0
361,0.0
410,0.0
2,1, 1, 1, 0,22, 0.00,60.00,Sunday
141,0.0
178,0.0
179,0.0
180,0.0
181,0.0
182,0.0
183,0.0
184,0.0
185,0.0
186,0.0
187,0.0
188,0.0
189,0.0
190,0.0
191,0.0
192,0.0
193,0.0
194,0.0
195,0.0
196,0.0
197,0.0
198,0.0
199,0.0
200,0.0
361,0.0
410,0.0
2,1, 1, 1, 0,23, 0.00,60.00,Sunday
141,0.0
178,0.0
179,0.0
180,0.0
181,0.0
182,0.0
183,0.0
184,0.0
185,0.0
186,0.0
187,0.0
188,0.0
189,0.0
190,0.0
191,0.0
192,0.0
193,0.0
194,0.0
195,0.0
196,0.0
197,0.0
198,0.0
199,0.0
200,0.0
361,0.0
410,0.0
2,1, 1, 1, 0,24, 0.00,60.00,Sunday
141,0.0
178,0.0
179,0.0
180,0.0
181,0.0
182,0.0
183,0.0
184,0.0
185,0.0
186,0.0
187,0.0
188,0.0
189,0.0
190,0.0
191,0.0
192,0.0
193,0.0
194,0.0
195,0.0
196,0.0
197,0.0
198,0.0
199,0.0
200,0.0
361,0.0
410,0.0
2,2, 1, 2, 0, 1, 0.00,60.00,Monday
141,0.0
178,0.0
179,0.0
180,0.0
181,0.0
182,0.0
183,0.0
184,0.0
185,0.0
186,0.0
187,0.0
188,0.0
189,0.0
190,0.0
191,0.0
192,0.0
193,0.0
194,0.0
195,0.0
196,0.0
197,0.0
198,0.0
199,0.0
200,0.0
361,0.0
410,0.0
2,2, 1, 2, 0, 2, 0.00,60.00,Monday
141,0.0
178,0.0
179,0.0
180,0.0
181,0.0
182,0.0
183,0.0
184,0.0
185,0.0
186,0.0
187,0.0
188,0.0
189,0.0
190,0.0
191,0.0
192,0.0
193,0.0
194,0.0
195,0.0
196,0.0
197,0.0
198,0.0
199,0.0
200,0.0
361,0.0
410,0.0
2,2, 1, 2, 0, 3, 0.00,60.00,Monday
141,0.0
178,0.0
179,0.0
180,0.0
181,0.0
182,0.0
183,0.0
184,0.0
185,0.0
186,0.0
187,0.0
188,0.0
189,0.0
190,0.0
191,0.0
192,0.0
193,0.0
194,0.0
195,0.0
196,0.0
197,0.0
198,0.0
199,0.0
200,0.0
361,0.0
410,0.0
2,2, 1, 2, 0, 4, 0.00,60.00,Monday
141,0.0
178,0.0
179,0.0
180,0.0
181,0.0
182,0.0
183,0.0
184,0.0
185,0.0
186,0.0
187,0.0
188,0.0
189,0.0
190,0.0
191,0.0
192,0.0
193,0.0
194,0.0
195,0.0
196,0.0
197,0.0
198,0.0
199,0.0
200,0.0
361,0.0
410,0.0
2,2, 1, 2, 0, 5, 0.00,60.00,Monday
141,0.0
178,0.0
179,0.0
180,0.0
181,0.0
182,0.0
183,0.0
184,0.0
185,0.0
186,0.0
187,0.0
188,0.0
189,0.0
190,0.0
191,0.0
192,0.0
193,0.0
194,0.0
195,0.0
196,0.0
197,0.0
198,0.0
199,0.0
200,0.0
361,0.0
410,0.0
2,2, 1, 2, 0, 6, 0.00,60.00,Monday
141,0.0
178,0.0
179,0.0
180,0.0
181,0.0
182,0.0
183,0.0
184,0.0
185,0.0
186,0.0
187,0.0
188,0.0
189,0.0
190,0.0
191,0.0
192,0.0
193,0.0
194,0.0
195,0.0
196,0.0
197,0.0
198,0.0
199,0.0
200,0.0
361,0.0
410,0.0
2,2, 1, 2, 0, 7, 0.00,60.00,Monday
141,0.0
178,0.0
179,0.0
180,0.0
181,0.0
182,0.0
183,0.0
184,0.0
185,0.0
186,0.0
187,0.0
188,0.0
189,0.0
190,0.0
191,0.0
192,0.0
193,0.0
194,0.0
195,0.0
196,0.0
197,0.0
198,0.0
199,0.0
200,0.0
361,0.0
410,0.0
2,2, 1, 2, 0, 8, 0.00,60.00,Monday
141,0.0
178,0.0
179,0.0
180,0.0
181,0.0
182,0.0
183,0.0
184,0.0
185,0.0
186,0.0
187,0.0
188,0.0
189,0.0
190,0.0
191,0.0
192,0.0
193,0.0
194,0.0
195,0.0
196,0.0
197,0.0
198,0.0
199,0.0
200,0.0
361,0.0
410,0.0
2,2, 1, 2, 0, 9, 0.00,60.00,Monday
141,1709.067896325159
178,1709.067896325159
179,1709.067896325159
180,1709.0678963251585
181,1709.0678963251585
182,1709.0678963251585
183,1709.0678963251585
184,1709.067896325159
185,1709.067896325159
186,1709.067896325159
187,1709.067896325159
188,1709.0678963251585
189,1709.0678963251585
190,1709.0678963251585
191,1709.0678963251585
192,1709.067896325159
193,1684.3527929079096
194,1684.3527929079096
195,1684.3527929079096
196,1684.3527929079094
197,1684.3527929079094
198,1684.511785843255
199,1704.6099944282723
200,1709.0678963251585
361,-4.263256414560601e-12
410,4.263256414560601e-12
2,2, 1, 2, 0,10, 0.00,60.00,Monday
141,11185.516515561752
178,11185.516515561752
179,11185.516515561752
180,11185.516515561752
181,11185.516515561752
182,11185.516515561752
183,11185.516515561752
184,11185.516515561752
185,11185.516515561752
186,11185.516515561752
187,11185.516515561752
188,11185.516515561752
189,11185.516515561752
190,11185.516515561752
191,11185.516515561752
192,11185.516515561752
193,11018.54323131662
194,11018.54323131662
195,11018.54323131662
196,11018.54323131662
197,11018.54323131662
198,11018.54323131359
199,11034.854404290096
200,11183.255749332331
361,-136924.42419510943
410,136924.42419510943
2,2, 1, 2, 0,11, 0.00,60.00,Monday
141,26854.921357597574
178,26854.921357597574
179,26854.921357597574
180,26854.921357597574
181,26854.921357597574
182,26854.921357597574
183,26854.921357597574
184,26854.921357597574
185,26854.921357597574
186,26854.921357597574
187,26854.921357597574
188,26854.921357597574
189,26854.921357597574
190,26854.921357597574
191,26854.921357597574
192,26854.921357597574
193,25394.941926653213
194,25394.941926653213
195,25394.941926653213
196,25394.94192665321
197,25394.94192665321
198,25394.94192665321
199,25394.941926652697
200,26109.83960386277
361,-496316.8286668643
410,496316.8286668643
2,2, 1, 2, 0,12, 0.00,60.00,Monday
141,81513.64607456478
178,81513.64607456478
179,81513.64607456478
180,81513.64607456478
181,81513.64607456478
182,81513.64607456478
183,81513.64607456478
184,81513.64607456478
185,81513.64607456478
186,81513.64607456478
187,81513.64607456478
188,81513.64607456478
189,81513.64607456478
190,81513.64607456478
191,81513.64607456478
192,81513.64607456478
193,71753.48892282577
194,71753.48892282577
195,71753.48892282577
196,71753.48892282577
197,71753.48892282577
198,71753.48892282577
199,71753.48892282577
200,72989.36646493143
361,-1717295.802784714
410,1717295.802784714
2,2, 1, 2, 0,13, 0.00,60.00,Monday
141,171231.66418159343
178,171231.66418159343
179,171231.66418159343
180,171231.66418159346
181,171231.66418159346
182,171231.66418159346
183,171231.66418159346
184,171231.66418159343
185,171231.66418159343
186,171231.66418159343
187,171231.66418159343
188,171231.66418159346
189,171231.66418159346
190,171231.66418159346
191,171231.66418159346
192,171231.66418159343
193,144344.96767233236
194,142891.63673693684
195,142891.63673693684
196,142891.6367369369
197,142891.6367369369
198,142891.6367369369
199,142891.6367369369
200,142891.5542488513
361,-3677312.8708718596
410,3677312.8708718596
2,2, 1, 2, 0,14, 0.00,60.00,Monday
141,231202.32911907867
178,231202.32911907867
179,231202.32911907867
180,231202.3291190788
181,231202.3291190788
182,231202.3291190788
183,231202.3291190788
184,231202.32911907867
185,231202.32911907867
186,231202.32911907867
187,231202.32911907867
188,231202.3291190788
189,231202.3291190788
190,231202.3291190788
191,231202.3291190788
192,231202.32911907867
193,202259.37685116747
194,182812.76981405093
195,182812.76981405093
196,182812.76981405105
197,182812.76981405105
198,182812.76981405105
199,182812.76981405105
200,182812.7698140511
361,-4942195.88863164
410,4942195.88863164
2,2, 1, 2, 0,15, 0.00,60.00,Monday
141,210929.71882030918
178,210929.71882030918
179,210929.71882030918
180,210929.7188203093
181,210929.7188203093
182,210929.7188203093
183,210929.7188203093
184,210929.71882030918
185,210929.71882030918
186,210929.71882030918
187,210929.71882030918
188,210929.7188203093
189,210929.7188203093
190,210929.7188203093
191,210929.7188203093
192,210929.71882030918
193,203333.64558068145
194,151582.54727723668
195,151582.5472772367
196,151582.54727723676
197,151582.54727723676
198,151582.54727723676
199,151582.54727723676
200,151582.54727723688
361,-4413908.853095024
410,4413908.853095024
2,2, 1, 2, 0,16, 0.00,60.00,Monday
141,109473.23724209261
178,109473.23724209261
179,109473.23724209261
180,109473.23724209267
181,109473.23724209267
182,109473.23724209267
183,109473.23724209267
184,109473.23724209261
185,109473.23724209261
186,109473.23724209261
187,109473.23724209261
188,109473.23724209267
189,109473.23724209267
190,109473.23724209267
191,109473.23724209267
192,109473.23724209261
193,109473.23729421645
194,89046.54967856567
195,66512.12067432026
196,66143.36339136616
197,66143.36339136616
198,66143.36339136616
199,66143.36339136616
200,66143.3633913662
361,-2174833.5355026945
410,2174833.5355026945
2,2, 1, 2, 0,17, 0.00,60.00,Monday
141,0.0
178,0.0
179,0.0
180,0.0
181,0.0
182,0.0
183,0.0
184,0.0
185,0.0
186,0.0
187,0.0
188,0.0
189,0.0
190,0.0
191,0.0
192,0.0
193,0.0
194,0.0
195,0.0
196,0.0
197,0.0
198,0.0
199,0.0
200,0.0
361,0.0
410,0.0
2,2, 1, 2, 0,18, 0.00,60.00,Monday
141,0.0
178,0.0
179,0.0
180,0.0
181,0.0
182,0.0
183,0.0
184,0.0
185,0.0
186,0.0
187,0.0
188,0.0
189,0.0
190,0.0
191,0.0
192,0.0
193,0.0
194,0.0
195,0.0
196,0.0
197,0.0
198,0.0
199,0.0
200,0.0
361,0.0
410,0.0
2,2, 1, 2, 0,19, 0.00,60.00,Monday
141,0.0
178,0.0
179,0.0
180,0.0
181,0.0
182,0.0
183,0.0
184,0.0
185,0.0
186,0.0
187,0.0
188,0.0
189,0.0
190,0.0
191,0.0
192,0.0
193,0.0
194,0.0
195,0.0
196,0.0
197,0.0
198,0.0
199,0.0
200,0.0
361,0.0
410,0.0
2,2, 1, 2, 0,20, 0.00,60.00,Monday
141,0.0
178,0.0
179,0.0
180,0.0
181,0.0
182,0.0
183,0.0
184,0.0
185,0.0
186,0.0
187,0.0
188,0.0
189,0.0
190,0.0
191,0.0
192,0.0
193,0.0
194,0.0
195,0.0
196,0.0
197,0.0
198,0.0
199,0.0
200,0.0
361,0.0
410,0.0
2,2, 1, 2, 0,21, 0.00,60.00,Monday
141,0.0
178,0.0
179,0.0
180,0.0
181,0.0
182,0.0
183,0.0
184,0.0
185,0.0
186,0.0
187,0.0
188,0.0
189,0.0
190,0.0
191,0.0
192,0.0
193,0.0
194,0.0
195,0.0
196,0.0
197,0.0
198,0.0
199,0.0
200,0.0
361,0.0
410,0.0
2,2, 1, 2, 0,22, 0.00,60.00,Monday
141,0.0
178,0.0
179,0.0
180,0.0
181,0.0
182,0.0
183,0.0
184,0.0
185,0.0
186,0.0
187,0.0
188,0.0
189,0.0
190,0.0
191,0.0
192,0.0
193,0.0
194,0.0
195,0.0
196,0.0
197,0.0
198,0.0
199,0.0
200,0.0
361,0.0
410,0.0
2,2, 1, 2, 0,23, 0.00,60.00,Monday
141,0.0
178,0.0
179,0.0
180,0.0
181,0.0
182,0.0
183,0.0
184,0.0
185,0.0
186,0.0
187,0.0
188,0.0
189,0.0
190,0.0
191,0.0
192,0.0
193,0.0
194,0.0
195,0.0
196,0.0
197,0.0
198,0.0
199,0.0
200,0.0
361,0.0
410,0.0
2,2, 1, 2, 0,24, 0.00,60.00,Monday
141,0.0
178,0.0
179,0.0
180,0.0
181,0.0
182,0.0
183,0.0
184,0.0
185,0.0
186,0.0
187,0.0
188,0.0
189,0.0
190,0.0
191,0.0
192,0.0
193,0.0
194,0.0
195,0.0
196,0.0
197,0.0
198,0.0
199,0.0
200,0.0
361,0.0
410,0.0
2,3, 1, 3, 0, 1, 0.00,60.00,Tuesday
141,0.0
178,0.0
179,0.0
180,0.0
181,0.0
182,0.0
183,0.0
184,0.0
185,0.0
186,0.0
187,0.0
188,0.0
189,0.0
190,0.0
191,0.0
192,0.0
193,0.0
194,0.0
195,0.0
196,0.0
197,0.0
198,0.0
199,0.0
200,0.0
361,0.0
410,0.0
2,3, 1, 3, 0, 2, 0.00,60.00,Tuesday
141,0.0
178,0.0
179,0.0
180,0.0
181,0.0
182,0.0
183,0.0
184,0.0
185,0.0
186,0.0
187,0.0
188,0.0
189,0.0
190,0.0
191,0.0
192,0.0
193,0.0
194,0.0
195,0.0
196,0.0
197,0.0
198,0.0
199,0.0
200,0.0
361,0.0
410,0.0
2,3, 1, 3, 0, 3, 0.00,60.00,Tuesday
141,0.0
178,0.0
179,0.0
180,0.0
181,0.0
182,0.0
183,0.0
184,0.0
185,0.0
186,0.0
187,0.0
188,0.0
189,0.0
190,0.0
191,0.0
192,0.0
193,0.0
194,0.0
195,0.0
196,0.0
197,0.0
198,0.0
199,0.0
200,0.0
361,0.0
410,0.0
2,3, 1, 3, 0, 4, 0.00,60.00,Tuesday
141,0.0
178,0.0
179,0.0
180,0.0
181,0.0
182,0.0
183,0.0
184,0.0
185,0.0
186,0.0
187,0.0
188,0.0
189,0.0
190,0.0
191,0.0
192,0.0
193,0.0
194,0.0
195,0.0
196,0.0
197,0.0
198,0.0
199,0.0
200,0.0
361,0.0
410,0.0
2,3, 1, 3, 0, 5, 0.00,60.00,Tuesday
141,0.0
178,0.0
179,0.0
180,0.0
181,0.0
182,0.0
183,0.0
184,0.0
185,0.0
186,0.0
187,0.0
188,0.0
189,0.0
190,0.0
191,0.0
192,0.0
193,0.0
194,0.0
195,0.0
196,0.0
197,0.0
198,0.0
199,0.0
200,0.0
361,0.0
410,0.0
2,3, 1, 3, 0, 6, 0.00,60.00,Tuesday
141,0.0
178,0.0
179,0.0
180,0.0
181,0.0
182,0.0
183,0.0
184,0.0
185,0.0
186,0.0
187,0.0
188,0.0
189,0.0
190,0.0
191,0.0
192,0.0
193,0.0
194,0.0
195,0.0
196,0.0
197,0.0
198,0.0
199,0.0
200,0.0
361,0.0
410,0.0
2,3, 1, 3, 0, 7, 0.00,60.00,Tuesday
141,0.0
178,0.0
179,0.0
180,0.0
181,0.0
182,0.0
183,0.0
184,0.0
185,0.0
186,0.0
187,0.0
188,0.0
189,0.0
190,0.0
191,0.0
192,0.0
193,0.0
194,0.0
195,0.0
196,0.0
197,0.0
198,0.0
199,0.0
200,0.0
361,0.0
410,0.0
2,3, 1, 3, 0, 8, 0.00,60.00,Tuesday
141,0.0
178,0.0
179,0.0
180,0.0
181,0.0
182,0.0
183,0.0
184,0.0
185,0.0
186,0.0
187,0.0
188,0.0
189,0.0
190,0.0
191,0.0
192,0.0
193,0.0
194,0.0
195,0.0
196,0.0
197,0.0
198,0.0
199,0.0
200,0.0
361,0.0
410,0.0
2,3, 1, 3, 0, 9, 0.00,60.00,Tuesday
141,3061.470709655347
178,3061.470709655347
179,3061.470709655347
180,3061.4707096553475
181,3061.4707096553475
182,3061.4707096553475
183,3061.4707096553475
184,3061.470709655347
185,3061.470709655347
186,3061.470709655347
187,3061.470709655347
188,3061.4707096553475
189,3061.4707096553475
190,3061.4707096553475
191,3061.4707096553475
192,3061.470709655347
193,2477.028007630387
194,2477.028007630387
195,2477.028007630387
196,2477.028007630388
197,2477.028007630388
198,2480.7852789698477
199,2956.0267060535525
200,3061.4707096553475
361,-16400.780613489947
410,16400.780613489947
2,3, 1, 3, 0,10, 0.00,60.00,Tuesday
141,29605.430847243653
178,29605.430847243653
179,29605.430847243653
180,29605.43084724366
181,29605.43084724366
182,29605.43084724366
183,29605.43084724366
184,29605.430847243653
185,29605.430847243653
186,29605.430847243653
187,29605.430847243653
188,29605.43084724366
189,29605.43084724366
190,29605.43084724366
191,29605.43084724366
192,29605.430847243653
193,24441.49403244342
194,24441.49403244342
195,24441.49403244342
196,24441.494032443425
197,24441.494032443425
198,24441.494032442337
199,24827.907282708904
200,29516.959789593762
361,-536613.1491119661
410,536613.1491119661
2,3, 1, 3, 0,11, 0.00,60.00,Tuesday
141,98340.0765784922
178,98340.0765784922
179,98340.0765784922
180,98340.0765784922
181,98340.0765784922
182,98340.0765784922
183,98340.0765784922
184,98340.0765784922
185,98340.0765784922
186,98340.0765784922
187,98340.0765784922
188,98340.0765784922
189,98340.0765784922
190,98340.0765784922
191,98340.0765784922
192,98340.0765784922
193,81407.45975606013
194,81407.4597560601
195,81407.45975606013
196,81407.45975606014
197,81407.45975606014
198,81407.45975606014
199,81407.45975605997
200,91104.69536837487
361,-2064717.3425755478
410,2064717.3425755478
2,3, 1, 3, 0,12, 0.00,60.00,Tuesday
141,187959.54856456892
178,187959.54856456892
179,187959.54856456892
180,187959.548564569
181,187959.548564569
182,187959.548564569
183,187959.548564569
184,187959.54856456892
185,187959.54856456892
186,187959.54856456892
187,187959.54856456892
188,187959.548564569
189,187959.548564569
190,187959.548564569
191,187959.548564569
192,187959.54856456892
193,153767.87849132885
194,153767.87849132885
195,153767.87849132885
196,153767.8784913289
197,153767.8784913289
198,153767.8784913289
199,153767.8784913289
200,159289.3625319567
361,-4027414.2528035473
410,4027414.2528035473
2,3, 1, 3, 0,13, 0.00,60.00,Tuesday
141,217731.34059167228
178,217731.34059167228
179,217731.34059167228
180,217731.34059167237
181,217731.34059167237
182,217731.34059167237
183,217731.34059167237
184,217731.34059167228
185,217731.34059167228
186,217731.34059167228
187,217731.34059167228
188,217731.34059167237
189,217731.34059167237
190,217731.34059167237
191,217731.34059167237
192,217731.34059167228
193,178920.94138995436
194,177382.57576457868
195,177382.57576457868
196,177382.57576457877
197,177382.57576457877
198,177382.57576457877
199,177382.57576457877
200,177382.43232805378
361,-4672386.9366468415
410,4672386.9366468415
2,3, 1, 3, 0,14, 0.00,60.00,Tuesday
141,177456.93691779778
178,177456.93691779778
179,177456.93691779778
180,177456.9369177978
181,177456.9369177978
182,177456.9369177978
183,177456.9369177978
184,177456.93691779778
185,177456.93691779778
186,177456.93691779778
187,177456.93691779778
188,177456.9369177978
189,177456.9369177978
190,177456.9369177978
191,177456.9369177978
192,177456.93691779778
193,158489.06028018045
194,146883.67461932436
195,146883.6746193244
196,146883.67461932442
197,146883.67461932442
198,146883.67461932442
199,146883.67461932442
200,146883.67461932445
361,-3815773.134433015
410,3815773.134433015
2,3, 1, 3, 0,15, 0.00,60.00,Tuesday
141,134106.89031379172
178,134106.89031379172
179,134106.89031379172
180,134106.89031379175
181,134106.89031379175
182,134106.89031379175
183,134106.89031379175
184,134106.89031379172
185,134106.89031379172
186,134106.89031379172
187,134106.89031379172
188,134106.89031379175
189,134106.89031379175
190,134106.89031379175
191,134106.89031379175
192,134106.89031379172
193,130740.16566156084
194,109711.79634673127
195,109711.79634673127
196,109711.79634673132
197,109711.79634673132
198,109711.79634673132
199,109711.79634673132
200,109711.79634673134
361,-2857076.861700718
410,2857076.861700718
2,3, 1, 3, 0,16, 0.00,60.00,Tuesday
141,72202.6168670545
178,72202.6168670545
179,72202.6168670545
180,72202.61686705452
181,72202.61686705452
182,72202.61686705452
183,72202.61686705452
184,72202.6168670545
185,72202.6168670545
186,72202.6168670545
187,72202.6168670545
188,72202.61686705452
189,72202.61686705452
190,72202.61686705452
191,72202.61686705452
192,72202.6168670545
193,72202.61686709027
194,64833.25465949322
195,56947.875674079296
196,56820.07493082834
197,56820.07493082834
198,56820.07493082834
199,56820.07493082834
200,56820.074930828356
361,-1476208.8892306064
410,1476208.8892306064
2,3, 1, 3, 0,17, 0.00,60.00,Tuesday
141,0.0
178,0.0
179,0.0
180,0.0
181,0.0
182,0.0
183,0.0
184,0.0
185,0.0
186,0.0
187,0.0
188,0.0
189,0.0
190,0.0
191,0.0
192,0.0
193,0.0
194,0.0
195,0.0
196,0.0
197,0.0
198,0.0
199,0.0
200,0.0
361,0.0
410,0.0
2,3, 1, 3, 0,18, 0.00,60.00,Tuesday
141,0.0
178,0.0
179,0.0
180,0.0
181,0.0
182,0.0
183,0.0
184,0.0
185,0.0
186,0.0
187,0.0
188,0.0
189,0.0
190,0.0
191,0.0
192,0.0
193,0.0
194,0.0
195,0.0
196,0.0
197,0.0
198,0.0
199,0.0
200,0.0
361,0.0
410,0.0
2,3, 1, 3, 0,19, 0.00,60.00,Tuesday
141,0.0
178,0.0
179,0.0
180,0.0
181,0.0
182,0.0
183,0.0
184,0.0
185,0.0
186,0.0
187,0.0
188,0.0
189,0.0
190,0.0
191,0.0
192,0.0
193,0.0
194,0.0
195,0.0
196,0.0
197,0.0
198,0.0
199,0.0
200,0.0
361,0.0
410,0.0
2,3, 1, 3, 0,20, 0.00,60.00,Tuesday
141,0.0
178,0.0
179,0.0
180,0.0
181,0.0
182,0.0
183,0.0
184,0.0
185,0.0
186,0.0
187,0.0
188,0.0
189,0.0
190,0.0
191,0.0
192,0.0
193,0.0
194,0.0
195,0.0
196,0.0
197,0.0
198,0.0
199,0.0
200,0.0
361,0.0
410,0.0
2,3, 1, 3, 0,21, 0.00,60.00,Tuesday
141,0.0
178,0.0
179,0.0
180,0.0
181,0.0
182,0.0
183,0.0
184,0.0
185,0.0
186,0.0
187,0.0
188,0.0
189,0.0
190,0.0
191,0.0
192,0.0
193,0.0
194,0.0
195,0.0
196,0.0
197,0.0
198,0.0
199,0.0
200,0.0
361,0.0
410,0.0
2,3, 1, 3, 0,22, 0.00,60.00,Tuesday
141,0.0
178,0.0
179,0.0
180,0.0
181,0.0
182,0.0
183,0.0
184,0.0
185,0.0
186,0.0
187,0.0
188,0.0
189,0.0
190,0.0
191,0.0
192,0.0
193,0.0
194,0.0
195,0.0
196,0.0
197,0.0
198,0.0
199,0.0
200,0.0
361,0.0
410,0.0
2,3, 1, 3, 0,23, 0.00,60.00,Tuesday
141,0.0
178,0.0
179,0.0
180,0.0
181,0.0
182,0.0
183,0.0
184,0.0
185,0.0
186,0.0
187,0.0
188,0.0
189,0.0
190,0.0
191,0.0
192,0.0
193,0.0
194,0.0
195,0.0
196,0.0
197,0.0
198,0.0
199,0.0
200,0.0
361,0.0
410,0.0
2,3, 1, 3, 0,24, 0.00,60.00,Tuesday
141,0.0
178,0.0
179,0.0
180,0.0
181,0.0
182,0.0
183,0.0
184,0.0
185,0.0
186,0.0
187,0.0
188,0.0
189,0.0
190,0.0
191,0.0
192,0.0
193,0.0
194,0.0
195,0.0
196,0.0
197,0.0
198,0.0
199,0.0
200,0.0
361,0.0
410,0.0
2,4, 1, 4, 0, 1, 0.00,60.00,Wednesday
141,0.0
178,0.0
179,0.0
180,0.0
181,0.0
182,0.0
183,0.0
184,0.0
185,0.0
186,0.0
187,0.0
188,0.0
189,0.0
190,0.0
191,0.0
192,0.0
193,0.0
194,0.0
195,0.0
196,0.0
197,0.0
198,0.0
199,0.0
200,0.0
361,0.0
410,0.0
2,4, 1, 4, 0, 2, 0.00,60.00,Wednesday
141,0.0
178,0.0
179,0.0
180,0.0
181,0.0
182,0.0
183,0.0
184,0.0
185,0.0
186,0.0
187,0.0
188,0.0
189,0.0
190,0.0
191,0.0
192,0.0
193,0.0
194,0.0
195,0.0
196,0.0
197,0.0
198,0.0
199,0.0
200,0.0
361,0.0
410,0.0
2,4, 1, 4, 0, 3, 0.00,60.00,Wednesday
141,0.0